<?xml version="1.0" encoding="UTF-8"?>

<!-- generated on 2023-12-23 12:20:22 by Eclipse SUMO GUI Version 1.14.1
<configuration xmlns:xsi="http://www.w3.org/2001/XMLSchema-instance" xsi:noNamespaceSchemaLocation="http://sumo.dlr.de/xsd/sumoConfiguration.xsd">

    <input>
        <net-file value="C:\Users\ravip\OneDrive\Documents\SEM-7\MP\susang\final\final.net.xml"/>
        <route-files value="C:\Users\ravip\OneDrive\Documents\SEM-7\MP\susang\final\trips.trips.xml"/>
        <additional-files value="C:\Users\ravip\OneDrive\Documents\SEM-7\MP\susang\final\addon.add.xml"/>
    </input>

    <output>
        <tripinfo-output value="tripinfo.xml"/>
    </output>

    <time>
        <begin value="0"/>
        <end value="10000"/>
    </time>

    <traci_server>
        <remote-port value="65325"/>
    </traci_server>

</configuration>
-->

<tripinfos xmlns:xsi="http://www.w3.org/2001/XMLSchema-instance" xsi:noNamespaceSchemaLocation="http://sumo.dlr.de/xsd/tripinfo_file.xsd">
    <tripinfo id="49" depart="53.00" departLane="E6_0" departPos="5.10" departSpeed="0.00" departDelay="4.00" arrival="139.00" arrivalLane="E6_1" arrivalPos="672.80" arrivalSpeed="8.40" duration="86.00" routeLength="667.70" waitingTime="0.00" waitingCount="0" stopTime="0.00" timeLoss="8.86" rerouteNo="1" devices="tripinfo_49 routing_49" vType="normal" speedFactor="0.85" vaporized=""/>
    <tripinfo id="44" depart="44.00" departLane="-E12_0" departPos="5.10" departSpeed="0.00" departDelay="0.00" arrival="165.00" arrivalLane="-E14_0" arrivalPos="572.80" arrivalSpeed="8.42" duration="121.00" routeLength="863.13" waitingTime="5.00" waitingCount="1" stopTime="0.00" timeLoss="21.05" rerouteNo="0" devices="tripinfo_44 routing_44" vType="normal" speedFactor="1.04" vaporized=""/>
    <tripinfo id="10" depart="15.00" departLane="E20_0" departPos="5.10" departSpeed="0.00" departDelay="5.00" arrival="171.00" arrivalLane="E22_0" arrivalPos="572.80" arrivalSpeed="8.54" duration="156.00" routeLength="863.13" waitingTime="35.00" waitingCount="1" stopTime="0.00" timeLoss="56.17" rerouteNo="0" devices="tripinfo_10 routing_10" vType="normal" speedFactor="1.09" vaporized=""/>
    <tripinfo id="40" depart="40.00" departLane="-E9_0" departPos="5.10" departSpeed="0.00" departDelay="0.00" arrival="176.00" arrivalLane="E10_0" arrivalPos="286.40" arrivalSpeed="8.32" duration="136.00" routeLength="676.73" waitingTime="40.00" waitingCount="1" stopTime="0.00" timeLoss="57.45" rerouteNo="0" devices="tripinfo_40 routing_40" vType="normal" speedFactor="1.03" vaporized=""/>
    <tripinfo id="8" depart="10.00" departLane="-E16_0" departPos="5.10" departSpeed="0.00" departDelay="2.00" arrival="179.00" arrivalLane="E18_0" arrivalPos="672.80" arrivalSpeed="8.36" duration="169.00" routeLength="981.38" waitingTime="37.00" waitingCount="1" stopTime="0.00" timeLoss="55.35" rerouteNo="0" devices="tripinfo_8 routing_8" vType="normal" speedFactor="0.94" vaporized=""/>
    <tripinfo id="37" depart="37.00" departLane="E13_0" departPos="5.10" departSpeed="0.00" departDelay="0.00" arrival="182.00" arrivalLane="E13_0" arrivalPos="1172.80" arrivalSpeed="8.61" duration="145.00" routeLength="1167.70" waitingTime="0.00" waitingCount="0" stopTime="0.00" timeLoss="9.94" rerouteNo="1" devices="tripinfo_37 routing_37" vType="normal" speedFactor="1.18" vaporized=""/>
    <tripinfo id="64" depart="64.00" departLane="E22_0" departPos="5.10" departSpeed="0.00" departDelay="0.00" arrival="191.00" arrivalLane="E25_0" arrivalPos="286.40" arrivalSpeed="8.60" duration="127.00" routeLength="863.13" waitingTime="9.00" waitingCount="1" stopTime="0.00" timeLoss="26.44" rerouteNo="0" devices="tripinfo_64 routing_64" vType="normal" speedFactor="0.94" vaporized=""/>
    <tripinfo id="7" depart="7.00" departLane="E13_0" departPos="5.10" departSpeed="0.00" departDelay="0.00" arrival="201.00" arrivalLane="E17_0" arrivalPos="386.40" arrivalSpeed="8.63" duration="194.00" routeLength="1581.55" waitingTime="0.00" waitingCount="0" stopTime="0.00" timeLoss="10.86" rerouteNo="0" devices="tripinfo_7 routing_7" vType="normal" speedFactor="0.89" vaporized=""/>
    <tripinfo id="11" depart="11.00" departLane="-E21_0" departPos="5.10" departSpeed="0.00" departDelay="0.00" arrival="206.00" arrivalLane="-E18_0" arrivalPos="672.80" arrivalSpeed="8.66" duration="195.00" routeLength="1078.61" waitingTime="53.00" waitingCount="1" stopTime="0.00" timeLoss="69.79" rerouteNo="0" devices="tripinfo_11 routing_11" vType="normal" speedFactor="1.03" vaporized=""/>
    <tripinfo id="23" depart="23.00" departLane="-E12_0" departPos="5.10" departSpeed="0.00" departDelay="0.00" arrival="207.00" arrivalLane="E10_0" arrivalPos="286.40" arrivalSpeed="8.42" duration="184.00" routeLength="1194.68" waitingTime="26.00" waitingCount="1" stopTime="0.00" timeLoss="45.56" rerouteNo="1" devices="tripinfo_23 routing_23" vType="normal" speedFactor="0.89" vaporized=""/>
    <tripinfo id="62" depart="62.00" departLane="-E10_0" departPos="5.10" departSpeed="0.00" departDelay="0.00" arrival="207.00" arrivalLane="E12_0" arrivalPos="286.40" arrivalSpeed="8.60" duration="145.00" routeLength="1158.56" waitingTime="0.00" waitingCount="0" stopTime="0.00" timeLoss="10.35" rerouteNo="1" devices="tripinfo_62 routing_62" vType="normal" speedFactor="1.02" vaporized=""/>
    <tripinfo id="63" depart="67.00" departLane="-E10_0" departPos="5.10" departSpeed="0.00" departDelay="4.00" arrival="227.00" arrivalLane="E8_0" arrivalPos="286.40" arrivalSpeed="8.40" duration="160.00" routeLength="1294.90" waitingTime="0.00" waitingCount="0" stopTime="0.00" timeLoss="10.25" rerouteNo="1" devices="tripinfo_63 routing_63" vType="normal" speedFactor="0.99" vaporized=""/>
    <tripinfo id="100" depart="104.00" departLane="E6_0" departPos="5.10" departSpeed="0.00" departDelay="4.00" arrival="232.00" arrivalLane="E8_0" arrivalPos="286.40" arrivalSpeed="8.35" duration="128.00" routeLength="981.30" waitingTime="0.00" waitingCount="0" stopTime="0.00" timeLoss="14.23" rerouteNo="0" devices="tripinfo_100 routing_100" vType="normal" speedFactor="1.06" vaporized=""/>
    <tripinfo id="16" depart="16.00" departLane="-E8_0" departPos="5.10" departSpeed="0.00" departDelay="0.00" arrival="233.00" arrivalLane="E9_0" arrivalPos="386.40" arrivalSpeed="8.38" duration="217.00" routeLength="1376.73" waitingTime="31.00" waitingCount="1" stopTime="0.00" timeLoss="57.76" rerouteNo="1" devices="tripinfo_16 routing_16" vType="normal" speedFactor="0.88" vaporized=""/>
    <tripinfo id="102" depart="102.00" departLane="-E7_0" departPos="5.10" departSpeed="0.00" departDelay="0.00" arrival="236.00" arrivalLane="-E6_0" arrivalPos="672.80" arrivalSpeed="8.43" duration="134.00" routeLength="1063.13" waitingTime="0.00" waitingCount="0" stopTime="0.00" timeLoss="10.91" rerouteNo="0" devices="tripinfo_102 routing_102" vType="normal" speedFactor="0.97" vaporized=""/>
    <tripinfo id="33" depart="33.00" departLane="-E16_0" departPos="5.10" departSpeed="0.00" departDelay="0.00" arrival="240.00" arrivalLane="-E11_0" arrivalPos="572.80" arrivalSpeed="8.36" duration="207.00" routeLength="1481.25" waitingTime="18.00" waitingCount="1" stopTime="0.00" timeLoss="35.70" rerouteNo="1" devices="tripinfo_33 routing_33" vType="normal" speedFactor="1.17" vaporized=""/>
    <tripinfo id="67" depart="67.00" departLane="-E12_0" departPos="5.10" departSpeed="0.00" departDelay="0.00" arrival="241.00" arrivalLane="E16_0" arrivalPos="286.40" arrivalSpeed="8.49" duration="174.00" routeLength="1158.56" waitingTime="20.00" waitingCount="1" stopTime="0.00" timeLoss="39.09" rerouteNo="1" devices="tripinfo_67 routing_67" vType="normal" speedFactor="0.91" vaporized=""/>
    <tripinfo id="15" depart="20.00" departLane="E20_0" departPos="5.10" departSpeed="0.00" departDelay="5.00" arrival="244.00" arrivalLane="E23_0" arrivalPos="1172.80" arrivalSpeed="8.52" duration="224.00" routeLength="1463.13" waitingTime="31.00" waitingCount="1" stopTime="0.00" timeLoss="54.60" rerouteNo="0" devices="tripinfo_15 routing_15" vType="normal" speedFactor="0.93" vaporized=""/>
    <tripinfo id="12" depart="12.00" departLane="E24_0" departPos="5.10" departSpeed="0.00" departDelay="0.00" arrival="255.00" arrivalLane="E12_0" arrivalPos="286.40" arrivalSpeed="8.43" duration="243.00" routeLength="1563.13" waitingTime="34.00" waitingCount="2" stopTime="0.00" timeLoss="62.10" rerouteNo="1" devices="tripinfo_12 routing_12" vType="normal" speedFactor="1.05" vaporized=""/>
    <tripinfo id="132" depart="132.00" departLane="E20_0" departPos="5.10" departSpeed="0.00" departDelay="0.00" arrival="256.00" arrivalLane="E22_0" arrivalPos="572.80" arrivalSpeed="8.62" duration="124.00" routeLength="863.13" waitingTime="7.00" waitingCount="1" stopTime="0.00" timeLoss="23.72" rerouteNo="0" devices="tripinfo_132 routing_132" vType="normal" speedFactor="0.96" vaporized=""/>
    <tripinfo id="2" depart="2.00" departLane="E15_0" departPos="5.10" departSpeed="0.00" departDelay="0.00" arrival="262.00" arrivalLane="E21_0" arrivalPos="386.40" arrivalSpeed="8.62" duration="260.00" routeLength="1663.13" waitingTime="41.00" waitingCount="2" stopTime="0.00" timeLoss="67.28" rerouteNo="1" devices="tripinfo_2 routing_2" vType="normal" speedFactor="1.01" vaporized=""/>
    <tripinfo id="47" depart="47.00" departLane="-E11_0" departPos="5.10" departSpeed="0.00" departDelay="0.00" arrival="281.00" arrivalLane="E13_0" arrivalPos="1172.80" arrivalSpeed="8.29" duration="234.00" routeLength="1743.70" waitingTime="13.00" waitingCount="1" stopTime="0.00" timeLoss="31.95" rerouteNo="0" devices="tripinfo_47 routing_47" vType="normal" speedFactor="0.90" vaporized=""/>
    <tripinfo id="200" depart="200.00" departLane="-E6_0" departPos="5.10" departSpeed="0.00" departDelay="0.00" arrival="285.00" arrivalLane="-E6_0" arrivalPos="672.80" arrivalSpeed="8.49" duration="85.00" routeLength="667.70" waitingTime="0.00" waitingCount="0" stopTime="0.00" timeLoss="7.96" rerouteNo="1" devices="tripinfo_200 routing_200" vType="normal" speedFactor="0.95" vaporized=""/>
    <tripinfo id="4" depart="4.00" departLane="-E25_0" departPos="5.10" departSpeed="0.00" departDelay="0.00" arrival="287.00" arrivalLane="-E11_0" arrivalPos="572.80" arrivalSpeed="8.39" duration="283.00" routeLength="1563.13" waitingTime="75.00" waitingCount="2" stopTime="0.00" timeLoss="101.65" rerouteNo="1" devices="tripinfo_4 routing_4" vType="normal" speedFactor="1.03" vaporized=""/>
    <tripinfo id="56" depart="56.00" departLane="-E7_0" departPos="5.10" departSpeed="0.00" departDelay="0.00" arrival="290.00" arrivalLane="-E22_1" arrivalPos="572.80" arrivalSpeed="8.37" duration="234.00" routeLength="1581.30" waitingTime="26.00" waitingCount="1" stopTime="0.00" timeLoss="51.56" rerouteNo="1" devices="tripinfo_56 routing_56" vType="normal" speedFactor="0.90" vaporized=""/>
    <tripinfo id="71" depart="71.00" departLane="-E17_0" departPos="7.10" departSpeed="0.00" departDelay="0.00" arrival="291.00" arrivalLane="E6_2" arrivalPos="672.80" arrivalSpeed="12.94" duration="220.00" routeLength="2261.30" waitingTime="9.00" waitingCount="2" stopTime="0.00" timeLoss="51.43" rerouteNo="1" devices="tripinfo_71 routing_71" vType="emergency" speedFactor="0.97" vaporized=""/>
    <tripinfo id="52" depart="52.00" departLane="-E17_0" departPos="5.10" departSpeed="0.00" departDelay="0.00" arrival="295.00" arrivalLane="E21_0" arrivalPos="386.40" arrivalSpeed="8.65" duration="243.00" routeLength="1458.56" waitingTime="48.00" waitingCount="1" stopTime="0.00" timeLoss="74.03" rerouteNo="1" devices="tripinfo_52 routing_52" vType="normal" speedFactor="1.02" vaporized=""/>
    <tripinfo id="131" depart="131.00" departLane="-E22_0" departPos="5.10" departSpeed="0.00" departDelay="0.00" arrival="298.00" arrivalLane="-E18_1" arrivalPos="672.80" arrivalSpeed="8.54" duration="167.00" routeLength="1249.53" waitingTime="5.00" waitingCount="1" stopTime="0.00" timeLoss="22.20" rerouteNo="0" devices="tripinfo_131 routing_131" vType="normal" speedFactor="1.07" vaporized=""/>
    <tripinfo id="58" depart="58.00" departLane="-E18_0" departPos="5.10" departSpeed="0.00" departDelay="0.00" arrival="303.00" arrivalLane="E19_0" arrivalPos="986.40" arrivalSpeed="8.52" duration="245.00" routeLength="1657.30" waitingTime="31.00" waitingCount="2" stopTime="0.00" timeLoss="52.71" rerouteNo="0" devices="tripinfo_58 routing_58" vType="normal" speedFactor="1.02" vaporized=""/>
    <tripinfo id="18" depart="25.00" departLane="E20_0" departPos="5.10" departSpeed="0.00" departDelay="7.00" arrival="306.00" arrivalLane="E19_0" arrivalPos="986.40" arrivalSpeed="8.48" duration="281.00" routeLength="1970.90" waitingTime="24.00" waitingCount="2" stopTime="0.00" timeLoss="52.52" rerouteNo="1" devices="tripinfo_18 routing_18" vType="normal" speedFactor="0.94" vaporized=""/>
    <tripinfo id="83" depart="89.00" departLane="-E16_0" departPos="5.10" departSpeed="0.00" departDelay="6.00" arrival="306.00" arrivalLane="E21_0" arrivalPos="386.40" arrivalSpeed="8.56" duration="217.00" routeLength="1376.81" waitingTime="38.00" waitingCount="1" stopTime="0.00" timeLoss="57.58" rerouteNo="1" devices="tripinfo_83 routing_83" vType="normal" speedFactor="0.97" vaporized=""/>
    <tripinfo id="17" depart="17.00" departLane="-E22_0" departPos="5.10" departSpeed="0.00" departDelay="0.00" arrival="311.00" arrivalLane="E17_0" arrivalPos="386.40" arrivalSpeed="8.37" duration="294.00" routeLength="1660.44" waitingTime="76.00" waitingCount="2" stopTime="0.00" timeLoss="102.05" rerouteNo="1" devices="tripinfo_17 routing_17" vType="normal" speedFactor="0.94" vaporized=""/>
    <tripinfo id="197" depart="197.00" departLane="-E10_0" departPos="5.10" departSpeed="0.00" departDelay="0.00" arrival="315.00" arrivalLane="E11_0" arrivalPos="572.80" arrivalSpeed="8.61" duration="118.00" routeLength="863.13" waitingTime="1.00" waitingCount="1" stopTime="0.00" timeLoss="17.10" rerouteNo="0" devices="tripinfo_197 routing_197" vType="normal" speedFactor="0.87" vaporized=""/>
    <tripinfo id="204" depart="206.00" departLane="E11_0" departPos="5.10" departSpeed="0.00" departDelay="2.00" arrival="315.00" arrivalLane="E12_0" arrivalPos="286.40" arrivalSpeed="8.62" duration="109.00" routeLength="863.13" waitingTime="0.00" waitingCount="0" stopTime="0.00" timeLoss="9.18" rerouteNo="0" devices="tripinfo_204 routing_204" vType="normal" speedFactor="1.07" vaporized=""/>
    <tripinfo id="174" depart="174.00" departLane="E13_0" departPos="5.10" departSpeed="0.00" departDelay="0.00" arrival="319.00" arrivalLane="E13_0" arrivalPos="1172.80" arrivalSpeed="8.58" duration="145.00" routeLength="1167.70" waitingTime="0.00" waitingCount="0" stopTime="0.00" timeLoss="9.65" rerouteNo="1" devices="tripinfo_174 routing_174" vType="normal" speedFactor="0.96" vaporized=""/>
    <tripinfo id="9" depart="9.00" departLane="E20_0" departPos="5.10" departSpeed="0.00" departDelay="0.00" arrival="322.00" arrivalLane="-E11_0" arrivalPos="572.80" arrivalSpeed="8.62" duration="313.00" routeLength="2147.43" waitingTime="38.00" waitingCount="1" stopTime="0.00" timeLoss="64.01" rerouteNo="1" devices="tripinfo_9 routing_9" vType="normal" speedFactor="0.86" vaporized=""/>
    <tripinfo id="82" depart="82.00" departLane="E22_0" departPos="5.10" departSpeed="0.00" departDelay="0.00" arrival="326.00" arrivalLane="-E14_1" arrivalPos="572.80" arrivalSpeed="8.35" duration="244.00" routeLength="1862.32" waitingTime="0.00" waitingCount="0" stopTime="0.00" timeLoss="28.76" rerouteNo="1" devices="tripinfo_82 routing_82" vType="normal" speedFactor="1.02" vaporized=""/>
    <tripinfo id="169" depart="169.00" departLane="-E6_0" departPos="5.10" departSpeed="0.00" departDelay="0.00" arrival="328.00" arrivalLane="E11_0" arrivalPos="572.80" arrivalSpeed="8.55" duration="159.00" routeLength="1265.01" waitingTime="0.00" waitingCount="0" stopTime="0.00" timeLoss="12.74" rerouteNo="0" devices="tripinfo_169 routing_169" vType="normal" speedFactor="0.94" vaporized=""/>
    <tripinfo id="39" depart="39.00" departLane="-E17_0" departPos="5.10" departSpeed="0.00" departDelay="0.00" arrival="330.00" arrivalLane="E10_0" arrivalPos="286.40" arrivalSpeed="8.46" duration="291.00" routeLength="1897.54" waitingTime="44.00" waitingCount="2" stopTime="0.00" timeLoss="71.93" rerouteNo="1" devices="tripinfo_39 routing_39" vType="normal" speedFactor="0.90" vaporized=""/>
    <tripinfo id="139" depart="139.00" departLane="-E17_0" departPos="5.10" departSpeed="0.00" departDelay="0.00" arrival="332.00" arrivalLane="E19_0" arrivalPos="986.40" arrivalSpeed="8.56" duration="193.00" routeLength="1376.73" waitingTime="10.00" waitingCount="2" stopTime="0.00" timeLoss="33.66" rerouteNo="0" devices="tripinfo_139 routing_139" vType="normal" speedFactor="0.95" vaporized=""/>
    <tripinfo id="41" depart="45.00" departLane="-E9_0" departPos="5.10" departSpeed="0.00" departDelay="4.00" arrival="333.00" arrivalLane="E7_0" arrivalPos="386.40" arrivalSpeed="8.66" duration="288.00" routeLength="1489.52" waitingTime="80.00" waitingCount="4" stopTime="0.00" timeLoss="115.52" rerouteNo="1" devices="tripinfo_41 routing_41" vType="normal" speedFactor="0.96" vaporized=""/>
    <tripinfo id="143" depart="143.00" departLane="E22_0" departPos="5.10" departSpeed="0.00" departDelay="0.00" arrival="334.00" arrivalLane="-E15_0" arrivalPos="672.80" arrivalSpeed="8.36" duration="191.00" routeLength="1270.17" waitingTime="23.00" waitingCount="1" stopTime="0.00" timeLoss="43.84" rerouteNo="0" devices="tripinfo_143 routing_143" vType="normal" speedFactor="1.13" vaporized=""/>
    <tripinfo id="196" depart="201.00" departLane="-E18_0" departPos="5.10" departSpeed="0.00" departDelay="5.00" arrival="334.00" arrivalLane="E17_0" arrivalPos="386.40" arrivalSpeed="8.58" duration="133.00" routeLength="1078.61" waitingTime="0.00" waitingCount="0" stopTime="0.00" timeLoss="8.43" rerouteNo="0" devices="tripinfo_196 routing_196" vType="normal" speedFactor="1.03" vaporized=""/>
    <tripinfo id="122" depart="122.00" departLane="-E16_0" departPos="5.10" departSpeed="0.00" departDelay="0.00" arrival="335.00" arrivalLane="E22_0" arrivalPos="572.80" arrivalSpeed="8.32" duration="213.00" routeLength="1577.40" waitingTime="9.00" waitingCount="1" stopTime="0.00" timeLoss="30.19" rerouteNo="1" devices="tripinfo_122 routing_122" vType="normal" speedFactor="1.03" vaporized=""/>
    <tripinfo id="138" depart="138.00" departLane="-E12_0" departPos="5.10" departSpeed="0.00" departDelay="0.00" arrival="339.00" arrivalLane="E17_0" arrivalPos="386.40" arrivalSpeed="8.57" duration="201.00" routeLength="1276.98" waitingTime="33.00" waitingCount="1" stopTime="0.00" timeLoss="52.86" rerouteNo="1" devices="tripinfo_138 routing_138" vType="normal" speedFactor="1.00" vaporized=""/>
    <tripinfo id="45" depart="49.00" departLane="-E12_0" departPos="5.10" departSpeed="0.00" departDelay="4.00" arrival="342.00" arrivalLane="E19_0" arrivalPos="986.40" arrivalSpeed="8.45" duration="293.00" routeLength="1876.68" waitingTime="44.00" waitingCount="3" stopTime="0.00" timeLoss="75.63" rerouteNo="1" devices="tripinfo_45 routing_45" vType="normal" speedFactor="1.09" vaporized=""/>
    <tripinfo id="99" depart="99.00" departLane="E6_0" departPos="5.10" departSpeed="0.00" departDelay="0.00" arrival="343.00" arrivalLane="E25_0" arrivalPos="286.40" arrivalSpeed="8.28" duration="244.00" routeLength="1560.44" waitingTime="36.00" waitingCount="1" stopTime="0.00" timeLoss="63.25" rerouteNo="1" devices="tripinfo_99 routing_99" vType="normal" speedFactor="1.10" vaporized=""/>
    <tripinfo id="6" depart="6.00" departLane="-E10_0" departPos="5.10" departSpeed="0.00" departDelay="0.00" arrival="346.00" arrivalLane="-E22_0" arrivalPos="572.80" arrivalSpeed="8.30" duration="340.00" routeLength="2142.27" waitingTime="59.00" waitingCount="2" stopTime="0.00" timeLoss="92.26" rerouteNo="1" devices="tripinfo_6 routing_6" vType="normal" speedFactor="1.05" vaporized=""/>
    <tripinfo id="92" depart="94.00" departLane="-E25_0" departPos="5.10" departSpeed="0.00" departDelay="2.00" arrival="346.00" arrivalLane="E12_0" arrivalPos="286.40" arrivalSpeed="8.27" duration="252.00" routeLength="1294.90" waitingTime="74.00" waitingCount="2" stopTime="0.00" timeLoss="101.80" rerouteNo="1" devices="tripinfo_92 routing_92" vType="normal" speedFactor="0.83" vaporized=""/>
    <tripinfo id="90" depart="90.00" departLane="E15_0" departPos="5.10" departSpeed="0.00" departDelay="0.00" arrival="351.00" arrivalLane="E21_0" arrivalPos="386.40" arrivalSpeed="8.35" duration="261.00" routeLength="1663.13" waitingTime="49.00" waitingCount="1" stopTime="0.00" timeLoss="68.68" rerouteNo="1" devices="tripinfo_90 routing_90" vType="normal" speedFactor="1.02" vaporized=""/>
    <tripinfo id="25" depart="25.00" departLane="-E22_0" departPos="5.10" departSpeed="0.00" departDelay="0.00" arrival="355.00" arrivalLane="-E6_0" arrivalPos="672.80" arrivalSpeed="8.48" duration="330.00" routeLength="2441.01" waitingTime="18.00" waitingCount="2" stopTime="0.00" timeLoss="47.28" rerouteNo="1" devices="tripinfo_25 routing_25" vType="normal" speedFactor="0.87" vaporized=""/>
    <tripinfo id="27" depart="27.00" departLane="E13_0" departPos="5.10" departSpeed="0.00" departDelay="0.00" arrival="359.00" arrivalLane="E19_0" arrivalPos="986.40" arrivalSpeed="8.41" duration="332.00" routeLength="2181.24" waitingTime="59.00" waitingCount="1" stopTime="0.00" timeLoss="79.52" rerouteNo="0" devices="tripinfo_27 routing_27" vType="normal" speedFactor="0.95" vaporized=""/>
</tripinfos>
