<?xml version="1.0" encoding="UTF-8"?>

<!-- generated on 2023-11-01 21:01:46 by Eclipse SUMO GUI Version 1.18.0
<configuration xmlns:xsi="http://www.w3.org/2001/XMLSchema-instance" xsi:noNamespaceSchemaLocation="http://sumo.dlr.de/xsd/sumoConfiguration.xsd">

    <input>
        <net-file value="E:/nirma/sem-7/minor_project/practice/data/cross.net.xml"/>
        <route-files value="E:/nirma/sem-7/minor_project/practice/data/cross.rou.xml"/>
        <additional-files value="E:/nirma/sem-7/minor_project/practice/data/cross.det.xml"/>
    </input>

    <output>
        <tripinfo-output value="tripinfo.xml"/>
    </output>

    <time>
        <begin value="0"/>
    </time>

    <report>
        <verbose value="true"/>
        <no-step-log value="true"/>
    </report>

    <traci_server>
        <remote-port value="13861"/>
    </traci_server>

</configuration>
-->

<detector xmlns:xsi="http://www.w3.org/2001/XMLSchema-instance" xsi:noNamespaceSchemaLocation="http://sumo.dlr.de/xsd/det_e1_file.xsd">
    <interval begin="0.00" end="30.00" id="0" nVehContrib="0" flow="0.00" occupancy="0.00" speed="-1.00" harmonicMeanSpeed="-1.00" length="-1.00" nVehEntered="0"/>
    <interval begin="30.00" end="60.00" id="0" nVehContrib="0" flow="0.00" occupancy="0.00" speed="-1.00" harmonicMeanSpeed="-1.00" length="-1.00" nVehEntered="0"/>
    <interval begin="60.00" end="90.00" id="0" nVehContrib="0" flow="0.00" occupancy="0.00" speed="-1.00" harmonicMeanSpeed="-1.00" length="-1.00" nVehEntered="0"/>
    <interval begin="90.00" end="120.00" id="0" nVehContrib="0" flow="0.00" occupancy="0.00" speed="-1.00" harmonicMeanSpeed="-1.00" length="-1.00" nVehEntered="0"/>
    <interval begin="120.00" end="150.00" id="0" nVehContrib="2" flow="240.00" occupancy="2.86" speed="16.40" harmonicMeanSpeed="16.32" length="7.00" nVehEntered="2"/>
    <interval begin="150.00" end="180.00" id="0" nVehContrib="1" flow="120.00" occupancy="1.46" speed="15.97" harmonicMeanSpeed="15.97" length="7.00" nVehEntered="1"/>
    <interval begin="180.00" end="210.00" id="0" nVehContrib="0" flow="0.00" occupancy="0.00" speed="-1.00" harmonicMeanSpeed="-1.00" length="-1.00" nVehEntered="0"/>
    <interval begin="210.00" end="240.00" id="0" nVehContrib="1" flow="120.00" occupancy="1.35" speed="17.26" harmonicMeanSpeed="17.26" length="7.00" nVehEntered="1"/>
    <interval begin="240.00" end="270.00" id="0" nVehContrib="0" flow="0.00" occupancy="0.00" speed="-1.00" harmonicMeanSpeed="-1.00" length="-1.00" nVehEntered="0"/>
    <interval begin="270.00" end="300.00" id="0" nVehContrib="0" flow="0.00" occupancy="0.00" speed="-1.00" harmonicMeanSpeed="-1.00" length="-1.00" nVehEntered="0"/>
    <interval begin="300.00" end="330.00" id="0" nVehContrib="0" flow="0.00" occupancy="0.00" speed="-1.00" harmonicMeanSpeed="-1.00" length="-1.00" nVehEntered="0"/>
    <interval begin="330.00" end="360.00" id="0" nVehContrib="1" flow="120.00" occupancy="1.15" speed="20.36" harmonicMeanSpeed="20.36" length="7.00" nVehEntered="1"/>
    <interval begin="360.00" end="390.00" id="0" nVehContrib="3" flow="360.00" occupancy="3.79" speed="18.51" harmonicMeanSpeed="18.45" length="7.00" nVehEntered="3"/>
    <interval begin="390.00" end="420.00" id="0" nVehContrib="1" flow="120.00" occupancy="1.34" speed="17.40" harmonicMeanSpeed="17.40" length="7.00" nVehEntered="1"/>
    <interval begin="420.00" end="450.00" id="0" nVehContrib="2" flow="240.00" occupancy="3.36" speed="14.09" harmonicMeanSpeed="13.90" length="7.00" nVehEntered="2"/>
    <interval begin="450.00" end="480.00" id="0" nVehContrib="0" flow="0.00" occupancy="0.00" speed="-1.00" harmonicMeanSpeed="-1.00" length="-1.00" nVehEntered="0"/>
    <interval begin="480.00" end="510.00" id="0" nVehContrib="3" flow="360.00" occupancy="4.68" speed="15.23" harmonicMeanSpeed="14.95" length="7.00" nVehEntered="3"/>
    <interval begin="510.00" end="540.00" id="0" nVehContrib="0" flow="0.00" occupancy="0.00" speed="-1.00" harmonicMeanSpeed="-1.00" length="-1.00" nVehEntered="0"/>
    <interval begin="540.00" end="570.00" id="0" nVehContrib="1" flow="120.00" occupancy="1.23" speed="19.02" harmonicMeanSpeed="19.02" length="7.00" nVehEntered="1"/>
    <interval begin="570.00" end="600.00" id="0" nVehContrib="0" flow="0.00" occupancy="0.00" speed="-1.00" harmonicMeanSpeed="-1.00" length="-1.00" nVehEntered="0"/>
    <interval begin="600.00" end="630.00" id="0" nVehContrib="1" flow="120.00" occupancy="1.10" speed="21.14" harmonicMeanSpeed="21.14" length="7.00" nVehEntered="1"/>
    <interval begin="630.00" end="660.00" id="0" nVehContrib="0" flow="0.00" occupancy="0.00" speed="-1.00" harmonicMeanSpeed="-1.00" length="-1.00" nVehEntered="0"/>
    <interval begin="660.00" end="690.00" id="0" nVehContrib="1" flow="120.00" occupancy="1.23" speed="18.99" harmonicMeanSpeed="18.99" length="7.00" nVehEntered="1"/>
    <interval begin="690.00" end="720.00" id="0" nVehContrib="1" flow="120.00" occupancy="1.08" speed="21.51" harmonicMeanSpeed="21.51" length="7.00" nVehEntered="1"/>
    <interval begin="720.00" end="750.00" id="0" nVehContrib="1" flow="120.00" occupancy="1.22" speed="19.20" harmonicMeanSpeed="19.20" length="7.00" nVehEntered="1"/>
    <interval begin="750.00" end="780.00" id="0" nVehContrib="3" flow="360.00" occupancy="3.60" speed="19.55" harmonicMeanSpeed="19.43" length="7.00" nVehEntered="3"/>
    <interval begin="780.00" end="810.00" id="0" nVehContrib="0" flow="0.00" occupancy="0.00" speed="-1.00" harmonicMeanSpeed="-1.00" length="-1.00" nVehEntered="0"/>
    <interval begin="810.00" end="840.00" id="0" nVehContrib="3" flow="360.00" occupancy="4.04" speed="17.39" harmonicMeanSpeed="17.33" length="7.00" nVehEntered="3"/>
    <interval begin="840.00" end="859.00" id="0" nVehContrib="1" flow="189.47" occupancy="1.90" speed="19.35" harmonicMeanSpeed="19.35" length="7.00" nVehEntered="1"/>
</detector>
